MODEL 1
REMARK VINA RESULT:    -3.382      0.000      0.000
REMARK INTER + INTRA:          -3.382
REMARK INTER:                  -3.382
REMARK INTRA:                   0.000
REMARK UNBOUND:                 0.000
ROOT
ATOM      1 O1   LIG X   1      23.633  19.944  10.589  1.00  0.00     0.000   O
ATOM      2 O2   LIG X   1      24.392  18.985   7.849  1.00  0.00     0.000   O
ATOM      3 O3   LIG X   1      23.192  19.229   9.074  1.00  0.00     0.000   O
ATOM      4 O4   LIG X   1      24.075  20.659  12.104  1.00  0.00     0.000   O
ATOM      5 C5   LIG X   1      24.581  20.020  10.277  1.00  0.00     0.000   C
ATOM      6 C6   LIG X   1      24.834  19.700   9.364  1.00  0.00     0.000   C
ATOM      7 C7   LIG X   1      25.275  20.415  10.879  1.00  0.00     0.000   C
ATOM      8 C8   LIG X   1      25.781  19.776   9.052  1.00  0.00     0.000   C
ATOM      9 C9   LIG X   1      26.222  20.491  10.567  1.00  0.00     0.000   C
ATOM     10 C10  LIG X   1      26.475  20.172   9.654  1.00  0.00     0.000   C
ATOM     11 C11  LIG X   1      24.139  19.305   8.763  1.00  0.00     0.000   C
ATOM     12 C12  LIG X   1      23.380  20.263  11.502  1.00  0.00     0.000   C
ATOM     13 C13  LIG X   1      22.433  20.187  11.814  1.00  0.00     0.000   C
ATOM     14 H14  LIG X   1      25.118  20.613  11.445  1.00  0.00     0.000   H
ATOM     15 H15  LIG X   1      25.938  19.578   8.486  1.00  0.00     0.000   H
ATOM     16 H16  LIG X   1      26.652  20.737  10.940  1.00  0.00     0.000   H
ATOM     17 H17  LIG X   1      27.062  20.219   9.461  1.00  0.00     0.000   H
ATOM     18 H18  LIG X   1      22.275  19.931  11.272  1.00  0.00     0.000   H
ATOM     19 H19  LIG X   1      21.846  20.140  12.007  1.00  0.00     0.000   H
ATOM     20 H20  LIG X   1      22.591  20.443  12.356  1.00  0.00     0.000   H
ATOM     21 H21  LIG X   1      23.962  18.740   7.477  1.00  0.00     0.000   H
ENDROOT
TORSDOF 0
ENDMDL
MODEL 2
REMARK VINA RESULT:    -3.186      1.297      2.753
REMARK INTER + INTRA:          -3.186
REMARK INTER:                  -3.186
REMARK INTRA:                   0.000
REMARK UNBOUND:                 0.000
ROOT
ATOM      1 O1   LIG X   1      23.883  19.045   9.317  1.00  0.00     0.000   O
ATOM      2 O2   LIG X   1      26.323  20.655   9.988  1.00  0.00     0.000   O
ATOM      3 O3   LIG X   1      25.469  19.607   8.906  1.00  0.00     0.000   O
ATOM      4 O4   LIG X   1      22.297  18.483   9.728  1.00  0.00     0.000   O
ATOM      5 C5   LIG X   1      23.924  19.556  10.175  1.00  0.00     0.000   C
ATOM      6 C6   LIG X   1      24.738  20.093  10.399  1.00  0.00     0.000   C
ATOM      7 C7   LIG X   1      23.152  19.531  10.810  1.00  0.00     0.000   C
ATOM      8 C8   LIG X   1      24.779  20.604  11.257  1.00  0.00     0.000   C
ATOM      9 C9   LIG X   1      23.193  20.042  11.669  1.00  0.00     0.000   C
ATOM     10 C10  LIG X   1      24.007  20.579  11.892  1.00  0.00     0.000   C
ATOM     11 C11  LIG X   1      25.510  20.118   9.764  1.00  0.00     0.000   C
ATOM     12 C12  LIG X   1      23.069  18.508   9.094  1.00  0.00     0.000   C
ATOM     13 C13  LIG X   1      23.028  17.997   8.235  1.00  0.00     0.000   C
ATOM     14 H14  LIG X   1      22.647  19.198  10.672  1.00  0.00     0.000   H
ATOM     15 H15  LIG X   1      25.283  20.937  11.396  1.00  0.00     0.000   H
ATOM     16 H16  LIG X   1      22.714  20.026  12.062  1.00  0.00     0.000   H
ATOM     17 H17  LIG X   1      24.032  20.896  12.424  1.00  0.00     0.000   H
ATOM     18 H18  LIG X   1      23.596  18.198   8.088  1.00  0.00     0.000   H
ATOM     19 H19  LIG X   1      23.002  17.680   7.703  1.00  0.00     0.000   H
ATOM     20 H20  LIG X   1      22.460  17.796   8.382  1.00  0.00     0.000   H
ATOM     21 H21  LIG X   1      26.802  20.671   9.594  1.00  0.00     0.000   H
ENDROOT
TORSDOF 0
ENDMDL
MODEL 3
REMARK VINA RESULT:    -2.994      3.284      4.225
REMARK INTER + INTRA:          -2.994
REMARK INTER:                  -2.994
REMARK INTRA:                   0.000
REMARK UNBOUND:                 0.000
ROOT
ATOM      1 O1   LIG X   1      21.283  19.865   6.650  1.00  0.00     0.000   O
ATOM      2 O2   LIG X   1      23.870  19.482   5.179  1.00  0.00     0.000   O
ATOM      3 O3   LIG X   1      22.194  19.919   5.177  1.00  0.00     0.000   O
ATOM      4 O4   LIG X   1      20.373  19.811   8.122  1.00  0.00     0.000   O
ATOM      5 C5   LIG X   1      22.097  19.555   7.142  1.00  0.00     0.000   C
ATOM      6 C6   LIG X   1      22.959  19.427   6.651  1.00  0.00     0.000   C
ATOM      7 C7   LIG X   1      22.048  19.373   8.124  1.00  0.00     0.000   C
ATOM      8 C8   LIG X   1      23.773  19.117   7.143  1.00  0.00     0.000   C
ATOM      9 C9   LIG X   1      22.862  19.063   8.615  1.00  0.00     0.000   C
ATOM     10 C10  LIG X   1      23.724  18.935   8.125  1.00  0.00     0.000   C
ATOM     11 C11  LIG X   1      23.007  19.609   5.669  1.00  0.00     0.000   C
ATOM     12 C12  LIG X   1      20.421  19.993   7.140  1.00  0.00     0.000   C
ATOM     13 C13  LIG X   1      19.607  20.303   6.648  1.00  0.00     0.000   C
ATOM     14 H14  LIG X   1      21.514  19.452   8.428  1.00  0.00     0.000   H
ATOM     15 H15  LIG X   1      24.307  19.038   6.839  1.00  0.00     0.000   H
ATOM     16 H16  LIG X   1      22.832  18.950   9.224  1.00  0.00     0.000   H
ATOM     17 H17  LIG X   1      24.229  18.743   8.430  1.00  0.00     0.000   H
ATOM     18 H18  LIG X   1      19.933  20.322   6.121  1.00  0.00     0.000   H
ATOM     19 H19  LIG X   1      19.103  20.495   6.343  1.00  0.00     0.000   H
ATOM     20 H20  LIG X   1      19.281  20.283   7.175  1.00  0.00     0.000   H
ATOM     21 H21  LIG X   1      23.900  19.595   4.570  1.00  0.00     0.000   H
ENDROOT
TORSDOF 0
ENDMDL
MODEL 4
REMARK VINA RESULT:    -2.869      3.866      5.692
REMARK INTER + INTRA:          -2.869
REMARK INTER:                  -2.869
REMARK INTRA:                   0.000
REMARK UNBOUND:                 0.000
ROOT
ATOM      1 O1   LIG X   1      21.485  19.667   7.287  1.00  0.00     0.000   O
ATOM      2 O2   LIG X   1      20.588  19.589  10.149  1.00  0.00     0.000   O
ATOM      3 O3   LIG X   1      21.805  19.303   8.950  1.00  0.00     0.000   O
ATOM      4 O4   LIG X   1      21.165  20.031   5.624  1.00  0.00     0.000   O
ATOM      5 C5   LIG X   1      20.567  19.979   7.532  1.00  0.00     0.000   C
ATOM      6 C6   LIG X   1      20.268  19.953   8.486  1.00  0.00     0.000   C
ATOM      7 C7   LIG X   1      19.948  20.317   6.823  1.00  0.00     0.000   C
ATOM      8 C8   LIG X   1      19.350  20.265   8.731  1.00  0.00     0.000   C
ATOM      9 C9   LIG X   1      19.030  20.629   7.068  1.00  0.00     0.000   C
ATOM     10 C10  LIG X   1      18.731  20.603   8.022  1.00  0.00     0.000   C
ATOM     11 C11  LIG X   1      20.887  19.615   9.195  1.00  0.00     0.000   C
ATOM     12 C12  LIG X   1      21.784  19.693   6.333  1.00  0.00     0.000   C
ATOM     13 C13  LIG X   1      22.702  19.381   6.088  1.00  0.00     0.000   C
ATOM     14 H14  LIG X   1      20.133  20.333   6.231  1.00  0.00     0.000   H
ATOM     15 H15  LIG X   1      19.165  20.249   9.322  1.00  0.00     0.000   H
ATOM     16 H16  LIG X   1      18.646  20.839   6.628  1.00  0.00     0.000   H
ATOM     17 H17  LIG X   1      18.162  20.797   8.174  1.00  0.00     0.000   H
ATOM     18 H18  LIG X   1      22.816  19.250   6.683  1.00  0.00     0.000   H
ATOM     19 H19  LIG X   1      23.271  19.187   5.936  1.00  0.00     0.000   H
ATOM     20 H20  LIG X   1      22.587  19.511   5.493  1.00  0.00     0.000   H
ATOM     21 H21  LIG X   1      20.971  19.379  10.588  1.00  0.00     0.000   H
ENDROOT
TORSDOF 0
ENDMDL
MODEL 5
REMARK VINA RESULT:    -2.797      3.323      4.909
REMARK INTER + INTRA:          -2.797
REMARK INTER:                  -2.797
REMARK INTRA:                   0.000
REMARK UNBOUND:                 0.000
ROOT
ATOM      1 O1   LIG X   1      20.780  19.807   6.641  1.00  0.00     0.000   O
ATOM      2 O2   LIG X   1      21.737  19.199   9.419  1.00  0.00     0.000   O
ATOM      3 O3   LIG X   1      20.446  19.561   8.323  1.00  0.00     0.000   O
ATOM      4 O4   LIG X   1      21.115  20.054   4.960  1.00  0.00     0.000   O
ATOM      5 C5   LIG X   1      21.753  19.648   6.812  1.00  0.00     0.000   C
ATOM      6 C6   LIG X   1      22.072  19.445   7.737  1.00  0.00     0.000   C
ATOM      7 C7   LIG X   1      22.406  19.692   6.056  1.00  0.00     0.000   C
ATOM      8 C8   LIG X   1      23.044  19.286   7.908  1.00  0.00     0.000   C
ATOM      9 C9   LIG X   1      23.379  19.532   6.226  1.00  0.00     0.000   C
ATOM     10 C10  LIG X   1      23.698  19.329   7.152  1.00  0.00     0.000   C
ATOM     11 C11  LIG X   1      21.418  19.402   8.493  1.00  0.00     0.000   C
ATOM     12 C12  LIG X   1      20.462  20.010   5.716  1.00  0.00     0.000   C
ATOM     13 C13  LIG X   1      19.489  20.170   5.545  1.00  0.00     0.000   C
ATOM     14 H14  LIG X   1      22.209  19.817   5.482  1.00  0.00     0.000   H
ATOM     15 H15  LIG X   1      23.242  19.160   8.482  1.00  0.00     0.000   H
ATOM     16 H16  LIG X   1      23.784  19.559   5.758  1.00  0.00     0.000   H
ATOM     17 H17  LIG X   1      24.301  19.231   7.258  1.00  0.00     0.000   H
ATOM     18 H18  LIG X   1      19.369  20.081   6.147  1.00  0.00     0.000   H
ATOM     19 H19  LIG X   1      18.886  20.268   5.440  1.00  0.00     0.000   H
ATOM     20 H20  LIG X   1      19.609  20.258   4.944  1.00  0.00     0.000   H
ATOM     21 H21  LIG X   1      21.332  19.172   9.887  1.00  0.00     0.000   H
ENDROOT
TORSDOF 0
ENDMDL
MODEL 6
REMARK VINA RESULT:    -2.669      7.134      8.364
REMARK INTER + INTRA:          -2.669
REMARK INTER:                  -2.669
REMARK INTRA:                   0.000
REMARK UNBOUND:                 0.000
ROOT
ATOM      1 O1   LIG X   1      24.202  20.171  18.854  1.00  0.00     0.000   O
ATOM      2 O2   LIG X   1      25.295  19.300  16.200  1.00  0.00     0.000   O
ATOM      3 O3   LIG X   1      23.980  19.390  17.324  1.00  0.00     0.000   O
ATOM      4 O4   LIG X   1      24.423  20.952  20.384  1.00  0.00     0.000   O
ATOM      5 C5   LIG X   1      25.152  20.371  18.615  1.00  0.00     0.000   C
ATOM      6 C6   LIG X   1      25.516  20.081  17.730  1.00  0.00     0.000   C
ATOM      7 C7   LIG X   1      25.738  20.862  19.260  1.00  0.00     0.000   C
ATOM      8 C8   LIG X   1      26.466  20.281  17.490  1.00  0.00     0.000   C
ATOM      9 C9   LIG X   1      26.688  21.062  19.020  1.00  0.00     0.000   C
ATOM     10 C10  LIG X   1      27.052  20.771  18.135  1.00  0.00     0.000   C
ATOM     11 C11  LIG X   1      24.931  19.590  17.084  1.00  0.00     0.000   C
ATOM     12 C12  LIG X   1      23.838  20.462  19.739  1.00  0.00     0.000   C
ATOM     13 C13  LIG X   1      22.887  20.262  19.978  1.00  0.00     0.000   C
ATOM     14 H14  LIG X   1      25.512  21.042  19.808  1.00  0.00     0.000   H
ATOM     15 H15  LIG X   1      26.692  20.101  16.942  1.00  0.00     0.000   H
ATOM     16 H16  LIG X   1      27.051  21.366  19.420  1.00  0.00     0.000   H
ATOM     17 H17  LIG X   1      27.641  20.895  17.987  1.00  0.00     0.000   H
ATOM     18 H18  LIG X   1      22.808  19.982  19.431  1.00  0.00     0.000   H
ATOM     19 H19  LIG X   1      22.298  20.138  20.127  1.00  0.00     0.000   H
ATOM     20 H20  LIG X   1      22.967  20.541  20.526  1.00  0.00     0.000   H
ATOM     21 H21  LIG X   1      24.932  18.996  15.800  1.00  0.00     0.000   H
ENDROOT
TORSDOF 0
ENDMDL
MODEL 7
REMARK VINA RESULT:    -2.501      6.903      8.413
REMARK INTER + INTRA:          -2.501
REMARK INTER:                  -2.501
REMARK INTRA:                   0.000
REMARK UNBOUND:                 0.000
ROOT
ATOM      1 O1   LIG X   1      23.880  19.440  17.820  1.00  0.00     0.000   O
ATOM      2 O2   LIG X   1      24.535  20.887  20.365  1.00  0.00     0.000   O
ATOM      3 O3   LIG X   1      23.431  19.953  19.412  1.00  0.00     0.000   O
ATOM      4 O4   LIG X   1      24.329  18.927  16.228  1.00  0.00     0.000   O
ATOM      5 C5   LIG X   1      24.766  19.892  17.924  1.00  0.00     0.000   C
ATOM      6 C6   LIG X   1      24.984  20.374  18.772  1.00  0.00     0.000   C
ATOM      7 C7   LIG X   1      25.433  19.861  17.180  1.00  0.00     0.000   C
ATOM      8 C8   LIG X   1      25.870  20.826  18.877  1.00  0.00     0.000   C
ATOM      9 C9   LIG X   1      26.320  20.313  17.285  1.00  0.00     0.000   C
ATOM     10 C10  LIG X   1      26.538  20.795  18.133  1.00  0.00     0.000   C
ATOM     11 C11  LIG X   1      24.317  20.405  19.516  1.00  0.00     0.000   C
ATOM     12 C12  LIG X   1      23.661  18.958  16.971  1.00  0.00     0.000   C
ATOM     13 C13  LIG X   1      22.775  18.507  16.867  1.00  0.00     0.000   C
ATOM     14 H14  LIG X   1      25.298  19.562  16.654  1.00  0.00     0.000   H
ATOM     15 H15  LIG X   1      26.006  21.125  19.403  1.00  0.00     0.000   H
ATOM     16 H16  LIG X   1      26.734  20.294  16.824  1.00  0.00     0.000   H
ATOM     17 H17  LIG X   1      27.087  21.075  18.198  1.00  0.00     0.000   H
ATOM     18 H18  LIG X   1      22.614  18.690  17.437  1.00  0.00     0.000   H
ATOM     19 H19  LIG X   1      22.226  18.227  16.802  1.00  0.00     0.000   H
ATOM     20 H20  LIG X   1      22.936  18.323  16.297  1.00  0.00     0.000   H
ATOM     21 H21  LIG X   1      24.121  20.906  20.826  1.00  0.00     0.000   H
ENDROOT
TORSDOF 0
ENDMDL
MODEL 8
REMARK VINA RESULT:    -2.449      1.799      2.739
REMARK INTER + INTRA:          -2.449
REMARK INTER:                  -2.449
REMARK INTRA:                   0.000
REMARK UNBOUND:                 0.000
ROOT
ATOM      1 O1   LIG X   1      23.852  19.092   9.757  1.00  0.00     0.000   O
ATOM      2 O2   LIG X   1      25.904  18.646   7.614  1.00  0.00     0.000   O
ATOM      3 O3   LIG X   1      25.490  18.775   9.291  1.00  0.00     0.000   O
ATOM      4 O4   LIG X   1      22.215  19.409  10.223  1.00  0.00     0.000   O
ATOM      5 C5   LIG X   1      23.582  19.111   8.794  1.00  0.00     0.000   C
ATOM      6 C6   LIG X   1      24.266  18.962   8.080  1.00  0.00     0.000   C
ATOM      7 C7   LIG X   1      22.628  19.279   8.546  1.00  0.00     0.000   C
ATOM      8 C8   LIG X   1      23.996  18.982   7.118  1.00  0.00     0.000   C
ATOM      9 C9   LIG X   1      22.358  19.298   7.584  1.00  0.00     0.000   C
ATOM     10 C10  LIG X   1      23.042  19.150   6.869  1.00  0.00     0.000   C
ATOM     11 C11  LIG X   1      25.220  18.794   8.328  1.00  0.00     0.000   C
ATOM     12 C12  LIG X   1      23.169  19.241  10.471  1.00  0.00     0.000   C
ATOM     13 C13  LIG X   1      23.439  19.221  11.434  1.00  0.00     0.000   C
ATOM     14 H14  LIG X   1      22.204  19.371   8.989  1.00  0.00     0.000   H
ATOM     15 H15  LIG X   1      24.420  18.889   6.675  1.00  0.00     0.000   H
ATOM     16 H16  LIG X   1      21.767  19.403   7.430  1.00  0.00     0.000   H
ATOM     17 H17  LIG X   1      22.875  19.162   6.272  1.00  0.00     0.000   H
ATOM     18 H18  LIG X   1      24.025  19.108  11.267  1.00  0.00     0.000   H
ATOM     19 H19  LIG X   1      23.606  19.209  12.031  1.00  0.00     0.000   H
ATOM     20 H20  LIG X   1      22.852  19.335  11.601  1.00  0.00     0.000   H
ATOM     21 H21  LIG X   1      26.495  18.542   7.768  1.00  0.00     0.000   H
ENDROOT
TORSDOF 0
ENDMDL
